 Q-Chem 5.0, Q-Chem, Inc., Pleasanton, CA (2017)
 Q-Chem 5.0.1 for Intel X86 EM64T Linux

User input:
--------------------------------------------------------------
$comment
time = 0.0
$end

$molecule
0 1
c       -1.13778        0.67325       -0.01047
c       -1.19729       -0.69612        0.01361
n        0.01808       -1.41708       -0.03289
c        1.14164       -0.70429        0.02983
c        1.16503        0.71150        0.01740
n       -0.00476        1.43531       -0.00761
h       -1.96811        1.30940        0.05656
h       -1.94856       -1.30970        0.06859
h        2.01361       -1.39591       -0.01010
h        2.05648        1.32953       -0.15274
$end

$rem
	JOBTYPE         SP
	METHOD          FANO
	basis cc-pCVDZ
	cc_symmetry FALSE
    SYM_TOL		4
	mem_total 50000
	threads 1
	!QSYS wt=12:00:00
	!QSYS mem=60.0gb
	!QSYS vmem=60.0gb
	!ADC_PRINT       6
	!FANO_PRINT      3
$end

$fano_pump
	METHOD                   ADC(2)
	EE_SINGLETS              7
	ADC_DAVIDSON_MAXITER     150
$end

$fano_probe
	METHOD                   CVS-ADC(2)-x
	CC_REST_OCC              6
	EE_SINGLETS              10
	ADC_DAVIDSON_MAXITER     150
$end
--------------------------------------------------------------

             Standard Nuclear Orientation (Angstroms)
    I     Atom           X                Y                Z
 ----------------------------------------------------------------
    1      C       0.9763475987    -0.8942134982    -0.0152135518
    2      C       1.3166266426     0.4335956917     0.0054845364
    3      N       0.2754384234     1.3892729088    -0.0354783403
    4      C      -0.9703796191     0.9231159195     0.0354125790
    5      C      -1.2847966976    -0.4575436917     0.0262550722
    6      N      -0.2892413201    -1.4066949768    -0.0040168388
    7      H       1.6583362634    -1.6876104896     0.0483508063
    8      H       2.1784421823     0.8794230722     0.0546958363
    9      H      -1.6815286949     1.7793930144    -0.0009307672
   10      H      -2.2854170218    -0.8789776490    -0.1372814358
 ----------------------------------------------------------------

   15    -262.6693355914      8.93E-09 Convergence criterion met
 Total energy in the final basis set = -262.66933559
  Excited state 1 (singlet, A)                                     [converged]
  Term symbol:  2 (1) A                                     R^2 =  5.24839e-13
  Excitation energy:                                             286.347376 eV
  Excited state 2 (singlet, A)                                     [converged]
  Term symbol:  3 (1) A                                     R^2 =  4.87179e-13
  Excitation energy:                                             286.507123 eV
  Excited state 3 (singlet, A)                                     [converged]
  Term symbol:  4 (1) A                                     R^2 =  3.92287e-13
  Excitation energy:                                             286.797994 eV
  Excited state 4 (singlet, A)                                     [converged]
  Term symbol:  5 (1) A                                     R^2 =  2.48665e-13
  Excitation energy:                                             286.834308 eV
  Excited state 5 (singlet, A)                                     [converged]
  Term symbol:  6 (1) A                                     R^2 =  3.40613e-13
  Excitation energy:                                             287.263814 eV
  Excited state 6 (singlet, A)                                     [converged]
  Term symbol:  7 (1) A                                     R^2 =  6.46829e-13
  Excitation energy:                                             287.500080 eV
  Excited state 7 (singlet, A)                                     [converged]
  Term symbol:  8 (1) A                                     R^2 =  5.37608e-13
  Excitation energy:                                             287.672128 eV
  Excited state 8 (singlet, A)                                     [converged]
  Term symbol:  9 (1) A                                     R^2 =  5.22620e-13
  Excitation energy:                                             288.059627 eV
  Excited state 9 (singlet, A)                                     [converged]
  Term symbol:  10 (1) A                                    R^2 =  4.79329e-10
  Excitation energy:                                             290.966656 eV
  Excited state 10 (singlet, A)                                 [not converged]
  Term symbol:  11 (1) A                                    R^2 =  7.43601e-06
  Excitation energy:                                             291.128072 eV
  Excited state 1 (singlet, A)                                     [converged]
  Term symbol:  2 (1) A                                     R^2 =  2.92894e-13
  Excitation energy:                                               4.260390 eV
  Excited state 2 (singlet, A)                                     [converged]
  Term symbol:  3 (1) A                                     R^2 =  1.34981e-13
  Excitation energy:                                               5.037813 eV
  Excited state 3 (singlet, A)                                     [converged]
  Term symbol:  4 (1) A                                     R^2 =  1.69488e-13
  Excitation energy:                                               5.179941 eV
  Excited state 4 (singlet, A)                                     [converged]
  Term symbol:  5 (1) A                                     R^2 =  2.91306e-13
  Excitation energy:                                               5.676021 eV
  Excited state 5 (singlet, A)                                     [converged]
  Term symbol:  6 (1) A                                     R^2 =  7.53704e-14
  Excitation energy:                                               6.581656 eV
  Excited state 6 (singlet, A)                                     [converged]
  Term symbol:  7 (1) A                                     R^2 =  7.58524e-13
  Excitation energy:                                               6.977987 eV
  Excited state 7 (singlet, A)                                     [converged]
  Term symbol:  8 (1) A                                     R^2 =  6.18670e-07
  Excitation energy:                                               7.722050 eV

                    Orbital Energies (a.u.)
 --------------------------------------------------------------

 Alpha MOs
 -- Occupied --
-15.602 -15.599 -11.302 -11.295 -11.285 -11.283  -1.288  -1.201
 -1.054  -0.904  -0.882  -0.732  -0.694  -0.684  -0.612  -0.559
 -0.536  -0.493  -0.423  -0.416  -0.360

          Ground-State Mulliken Net Atomic Charges

     Atom                 Charge (a.u.)
  ----------------------------------------
      1 C                     0.136632
      2 C                     0.182595
      3 N                    -0.334252
      4 C                     0.090635
      5 C                     0.105646
      6 N                    -0.330431
      7 H                     0.030720
      8 H                    -0.013106
      9 H                     0.064782
     10 H                     0.066779
  ----------------------------------------
  Sum of atomic charges =    -0.000000

                    Cartesian Multipole Moments
 -----------------------------------------------------------------
    Charge (ESU x 10^10)
                 0.0000
    Dipole Moment (Debye)
         X      -0.0826      Y       0.1009      Z       0.0526
       Tot       0.1406
    Quadrupole Moments (Debye-Ang)
        XX     -27.3336     XY      -2.2636     YY     -40.0000
        XZ       0.4997     YZ       0.1573     ZZ     -36.6146

 Total job time:  11190.99s(wall), 11183.53s(cpu)
        *  Thank you very much for using Q-Chem.  Have a nice day.  *
