 Q-Chem 5.0, Q-Chem, Inc., Pleasanton, CA (2017)
 Q-Chem 5.0.1 for Intel X86 EM64T Linux

User input:
--------------------------------------------------------------
$comment
time = 12.0
$end

$molecule
0 1
c       -1.17752        0.85427       -0.00185
c       -1.13998       -0.84905       -0.02492
n       -0.03486       -1.41087       -0.02039
c        1.17150       -0.79628        0.08601
c        1.17135        0.82860       -0.13458
n        0.00834        1.36737        0.07609
h       -2.19449        1.23618       -0.19499
h       -2.10752       -1.13914        0.17103
h        2.17875       -1.22915        0.00552
h        2.18963        1.28896        0.14247
$end

$rem
	JOBTYPE         SP
	METHOD          FANO
	basis cc-pCVDZ
	cc_symmetry FALSE
    SYM_TOL		4
	mem_total 50000
	threads 1
	!QSYS wt=12:00:00
	!QSYS mem=60.0gb
	!QSYS vmem=60.0gb
	!ADC_PRINT       6
	!FANO_PRINT      3
$end

$fano_pump
	METHOD                   ADC(2)
	EE_SINGLETS              7
	ADC_DAVIDSON_MAXITER     150
$end

$fano_probe
	METHOD                   CVS-ADC(2)-x
	CC_REST_OCC              6
	EE_SINGLETS              10
	ADC_DAVIDSON_MAXITER     150
$end
--------------------------------------------------------------

             Standard Nuclear Orientation (Angstroms)
    I     Atom           X                Y                Z
 ----------------------------------------------------------------
    1      C       1.0464232752    -1.0099376599     0.0073781747
    2      C       1.2493810492     0.6814923055    -0.0259881691
    3      N       0.2344519886     1.3934295757    -0.0300836390
    4      C      -1.0468837638     0.9556491010     0.0741911106
    5      C      -1.2748539232    -0.6544541671    -0.1367402946
    6      N      -0.2002041656    -1.3503175853     0.0826890191
    7      H       2.0001713708    -1.5325800315    -0.1786213148
    8      H       2.2473737917     0.8336467755     0.1728629447
    9      H      -1.9827603223     1.5255789524    -0.0136876197
   10      H      -2.3489194256    -0.9649271062     0.1381633996
 ----------------------------------------------------------------

   18    -262.5471117194      6.16E-09 Convergence criterion met
 Total energy in the final basis set = -262.54711172
  Excited state 1 (singlet, A)                                     [converged]
  Term symbol:  2 (1) A                                     R^2 =  1.06826e-12
  Excitation energy:                                             285.977210 eV
  Excited state 2 (singlet, A)                                     [converged]
  Term symbol:  3 (1) A                                     R^2 =  1.80966e-13
  Excitation energy:                                             286.170019 eV
  Excited state 3 (singlet, A)                                     [converged]
  Term symbol:  4 (1) A                                     R^2 =  5.74995e-13
  Excitation energy:                                             286.180496 eV
  Excited state 4 (singlet, A)                                     [converged]
  Term symbol:  5 (1) A                                     R^2 =  6.77645e-13
  Excitation energy:                                             286.289439 eV
  Excited state 5 (singlet, A)                                     [converged]
  Term symbol:  6 (1) A                                     R^2 =  4.16704e-13
  Excitation energy:                                             287.893974 eV
  Excited state 6 (singlet, A)                                     [converged]
  Term symbol:  7 (1) A                                     R^2 =  2.93323e-12
  Excitation energy:                                             288.039048 eV
  Excited state 7 (singlet, A)                                     [converged]
  Term symbol:  8 (1) A                                     R^2 =  1.64177e-12
  Excitation energy:                                             288.236329 eV
  Excited state 8 (singlet, A)                                     [converged]
  Term symbol:  9 (1) A                                     R^2 =  2.10966e-12
  Excitation energy:                                             288.271167 eV
  Excited state 9 (singlet, A)                                 [not converged]
  Term symbol:  10 (1) A                                    R^2 =  1.53385e-04
  Excitation energy:                                             290.923435 eV
  Excited state 10 (singlet, A)                                 [not converged]
  Term symbol:  11 (1) A                                    R^2 =  2.80418e-03
  Excitation energy:                                             290.933703 eV
  Excited state 1 (singlet, A)                                     [converged]
  Term symbol:  2 (1) A                                     R^2 =  7.49261e-14
  Excitation energy:                                               1.762991 eV
  Excited state 2 (singlet, A)                                     [converged]
  Term symbol:  3 (1) A                                     R^2 =  5.17473e-14
  Excitation energy:                                               3.272616 eV
  Excited state 3 (singlet, A)                                     [converged]
  Term symbol:  4 (1) A                                     R^2 =  5.47415e-14
  Excitation energy:                                               4.965663 eV
  Excited state 4 (singlet, A)                                     [converged]
  Term symbol:  5 (1) A                                     R^2 =  8.24868e-14
  Excitation energy:                                               5.045213 eV
  Excited state 5 (singlet, A)                                     [converged]
  Term symbol:  6 (1) A                                     R^2 =  1.89898e-13
  Excitation energy:                                               5.276734 eV
  Excited state 6 (singlet, A)                                     [converged]
  Term symbol:  7 (1) A                                     R^2 =  1.60417e-13
  Excitation energy:                                               6.185501 eV
  Excited state 7 (singlet, A)                                     [converged]
  Term symbol:  8 (1) A                                     R^2 =  7.88482e-07
  Excitation energy:                                               6.565906 eV

                    Orbital Energies (a.u.)
 --------------------------------------------------------------

 Alpha MOs
 -- Occupied --
-15.587 -15.582 -11.318 -11.315 -11.312 -11.305  -1.296  -1.238
 -1.012  -0.911  -0.840  -0.706  -0.701  -0.683  -0.612  -0.554
 -0.532  -0.489  -0.465  -0.323  -0.307

          Ground-State Mulliken Net Atomic Charges

     Atom                 Charge (a.u.)
  ----------------------------------------
      1 C                     0.034922
      2 C                     0.125952
      3 N                    -0.274244
      4 C                     0.063005
      5 C                     0.019733
      6 N                    -0.255499
      7 H                     0.081769
      8 H                     0.040626
      9 H                     0.078008
     10 H                     0.085727
  ----------------------------------------
  Sum of atomic charges =    -0.000000

                    Cartesian Multipole Moments
 -----------------------------------------------------------------
    Charge (ESU x 10^10)
                 0.0000
    Dipole Moment (Debye)
         X       0.3937      Y      -0.0450      Z       0.0107
       Tot       0.3964
    Quadrupole Moments (Debye-Ang)
        XX     -25.7498     XY      -2.6979     YY     -40.4456
        XZ      -0.3264     YZ       0.5435     ZZ     -37.1326

 Total job time:  10345.14s(wall), 10342.79s(cpu)
        *  Thank you very much for using Q-Chem.  Have a nice day.  *
