 Q-Chem 5.0, Q-Chem, Inc., Pleasanton, CA (2017)
 Q-Chem 5.0.1 for Intel X86 EM64T Linux

User input:
--------------------------------------------------------------
$comment
time = 16.0
$end

$molecule
0 1
c       -1.20388        0.88258        0.00490
c       -1.15127       -0.86789       -0.04088
n       -0.01244       -1.38450       -0.00470
c        1.18143       -0.82321        0.08477
c        1.19934        0.82135       -0.16069
n        0.00431        1.34755        0.08996
h       -2.24004        1.27416       -0.21133
h       -2.32247       -1.11638        0.15411
h        2.22806       -1.07546        0.03551
h        2.14227        1.27811        0.17069
$end

$rem
	JOBTYPE         SP
	METHOD          FANO
	basis cc-pCVDZ
	cc_symmetry FALSE
    SYM_TOL		4
	mem_total 50000
	threads 1
	!QSYS wt=12:00:00
	!QSYS mem=60.0gb
	!QSYS vmem=60.0gb
	!ADC_PRINT       6
	!FANO_PRINT      3
$end

$fano_pump
	METHOD                   ADC(2)
	EE_SINGLETS              7
	ADC_DAVIDSON_MAXITER     150
$end

$fano_probe
	METHOD                   CVS-ADC(2)-x
	CC_REST_OCC              6
	EE_SINGLETS              10
	ADC_DAVIDSON_MAXITER     150
$end
--------------------------------------------------------------

             Standard Nuclear Orientation (Angstroms)
    I     Atom           X                Y                Z
 ----------------------------------------------------------------
    1      C       1.2139834796    -0.8610150931     0.0149832783
    2      C       1.1366390298     0.8881672188    -0.0432225402
    3      N      -0.0096056499     1.3886821580    -0.0160824692
    4      C      -1.1957719716     0.8110130147     0.0715801794
    5      C      -1.1890285965    -0.8352864042    -0.1625174996
    6      N       0.0121466655    -1.3426114325     0.0974976328
    7      H       2.2566654289    -1.2392233754    -0.1935609681
    8      H       2.3032106057     1.1547107026     0.1556320540
    9      H      -2.2456400613     1.0479307932     0.0155629721
   10      H      -2.1269547301    -1.3031856164     0.1675192893
 ----------------------------------------------------------------

   19    -262.4936798029      4.66E-09 Convergence criterion met
 Total energy in the final basis set = -262.49367980
  Excited state 1 (singlet, A)                                     [converged]
  Term symbol:  2 (1) A                                     R^2 =  2.24361e-13
  Excitation energy:                                             285.773687 eV
  Excited state 2 (singlet, A)                                     [converged]
  Term symbol:  3 (1) A                                     R^2 =  3.40514e-13
  Excitation energy:                                             285.981297 eV
  Excited state 3 (singlet, A)                                     [converged]
  Term symbol:  4 (1) A                                     R^2 =  7.08351e-13
  Excitation energy:                                             286.202639 eV
  Excited state 4 (singlet, A)                                     [converged]
  Term symbol:  5 (1) A                                     R^2 =  5.75599e-13
  Excitation energy:                                             286.519907 eV
  Excited state 5 (singlet, A)                                     [converged]
  Term symbol:  6 (1) A                                     R^2 =  7.00525e-13
  Excitation energy:                                             287.997216 eV
  Excited state 6 (singlet, A)                                     [converged]
  Term symbol:  7 (1) A                                     R^2 =  5.83909e-13
  Excitation energy:                                             288.019746 eV
  Excited state 7 (singlet, A)                                     [converged]
  Term symbol:  8 (1) A                                     R^2 =  8.76019e-13
  Excitation energy:                                             288.418515 eV
  Excited state 8 (singlet, A)                                     [converged]
  Term symbol:  9 (1) A                                     R^2 =  1.22483e-12
  Excitation energy:                                             288.426156 eV
  Excited state 9 (singlet, A)                                     [converged]
  Term symbol:  10 (1) A                                    R^2 =  1.69721e-08
  Excitation energy:                                             290.333541 eV
  Excited state 10 (singlet, A)                                     [converged]
  Term symbol:  11 (1) A                                    R^2 =  8.46597e-07
  Excitation energy:                                             290.514525 eV
  Excited state 1 (singlet, A)                                     [converged]
  Term symbol:  2 (1) A                                     R^2 =  1.45676e-13
  Excitation energy:                                               1.232915 eV
  Excited state 2 (singlet, A)                                     [converged]
  Term symbol:  3 (1) A                                     R^2 =  7.17897e-14
  Excitation energy:                                               2.896436 eV
  Excited state 3 (singlet, A)                                     [converged]
  Term symbol:  4 (1) A                                     R^2 =  1.01035e-13
  Excitation energy:                                               4.708855 eV
  Excited state 4 (singlet, A)                                     [converged]
  Term symbol:  5 (1) A                                     R^2 =  3.01596e-13
  Excitation energy:                                               4.859034 eV
  Excited state 5 (singlet, A)                                     [converged]
  Term symbol:  6 (1) A                                     R^2 =  1.00312e-12
  Excitation energy:                                               5.025486 eV
  Excited state 6 (singlet, A)                                     [converged]
  Term symbol:  7 (1) A                                     R^2 =  1.83150e-10
  Excitation energy:                                               5.397199 eV
  Excited state 7 (singlet, A)                                     [converged]
  Term symbol:  8 (1) A                                     R^2 =  9.52343e-07
  Excitation energy:                                               5.950175 eV

                    Orbital Energies (a.u.)
 --------------------------------------------------------------

 Alpha MOs
 -- Occupied --
-15.592 -15.581 -11.330 -11.323 -11.321 -11.306  -1.293  -1.228
 -1.011  -0.911  -0.828  -0.713  -0.687  -0.668  -0.616  -0.552
 -0.511  -0.485  -0.460  -0.313  -0.296

          Ground-State Mulliken Net Atomic Charges

     Atom                 Charge (a.u.)
  ----------------------------------------
      1 C                     0.034704
      2 C                     0.034294
      3 N                    -0.257577
      4 C                     0.089711
      5 C                     0.019784
      6 N                    -0.271959
      7 H                     0.095340
      8 H                     0.105354
      9 H                     0.079645
     10 H                     0.070704
  ----------------------------------------
  Sum of atomic charges =    -0.000000

                    Cartesian Multipole Moments
 -----------------------------------------------------------------
    Charge (ESU x 10^10)
                 0.0000
    Dipole Moment (Debye)
         X       0.3212      Y      -0.0172      Z       0.0218
       Tot       0.3224
    Quadrupole Moments (Debye-Ang)
        XX     -24.9369     XY      -0.5613     YY     -41.1210
        XZ      -0.6598     YZ       0.4792     ZZ     -37.4676

 Total job time:  11534.69s(wall), 11534.37s(cpu)
        *  Thank you very much for using Q-Chem.  Have a nice day.  *
