 Q-Chem 5.0, Q-Chem, Inc., Pleasanton, CA (2017)
 Q-Chem 5.0.1 for Intel X86 EM64T Linux

User input:
--------------------------------------------------------------
$comment
time = 4.0
$end

$molecule
0 1
c       -1.13638        0.69987       -0.00875
c       -1.17677       -0.69273       -0.00201
n        0.01392       -1.44859       -0.03158
c        1.15206       -0.71159        0.05227
c        1.15257        0.74487       -0.03344
n        0.00308        1.42736        0.02202
h       -2.06557        1.38165       -0.03951
h       -2.07431       -1.48605        0.15604
h        1.90056       -1.45750       -0.01975
h        2.10460        1.37527       -0.06023
$end

$rem
	JOBTYPE         SP
	METHOD          FANO
	basis cc-pCVDZ
	cc_symmetry FALSE
    SYM_TOL		4
	mem_total 50000
	threads 1
	!QSYS wt=12:00:00
	!QSYS mem=60.0gb
	!QSYS vmem=60.0gb
	!ADC_PRINT       6
	!FANO_PRINT      3
$end

$fano_pump
	METHOD                   ADC(2)
	EE_SINGLETS              7
	ADC_DAVIDSON_MAXITER     150
$end

$fano_probe
	METHOD                   CVS-ADC(2)-x
	CC_REST_OCC              6
	EE_SINGLETS              10
	ADC_DAVIDSON_MAXITER     150
$end
--------------------------------------------------------------

             Standard Nuclear Orientation (Angstroms)
    I     Atom           X                Y                Z
 ----------------------------------------------------------------
    1      C       0.0316326678    -1.3340235941     0.0110805180
    2      C      -1.1900975034    -0.6644072610     0.0101345747
    3      N      -1.2396284243     0.7451045084     0.0377870682
    4      C      -0.0286307299     1.3539236912    -0.0537895060
    5      C       1.2284538954     0.6177248663     0.0260336157
    6      N       1.2353917694    -0.7191723216    -0.0273840466
    7      H       0.1498793982    -2.4803940897     0.0429646760
    8      H      -2.3293231354    -1.0375685967    -0.1409615989
    9      H      -0.2930231146     2.3770301618     0.0181179022
   10      H       2.2539734562     1.1201010019     0.0463026552
 ----------------------------------------------------------------

   16    -262.6564911722      6.39E-09 Convergence criterion met
 Total energy in the final basis set = -262.65649117
  Excited state 1 (singlet, A)                                     [converged]
  Term symbol:  2 (1) A                                     R^2 =  8.33127e-14
  Excitation energy:                                             286.585089 eV
  Excited state 2 (singlet, A)                                     [converged]
  Term symbol:  3 (1) A                                     R^2 =  3.33904e-13
  Excitation energy:                                             286.852903 eV
  Excited state 3 (singlet, A)                                     [converged]
  Term symbol:  4 (1) A                                     R^2 =  2.75514e-13
  Excitation energy:                                             286.917223 eV
  Excited state 4 (singlet, A)                                     [converged]
  Term symbol:  5 (1) A                                     R^2 =  3.89026e-13
  Excitation energy:                                             287.127837 eV
  Excited state 5 (singlet, A)                                     [converged]
  Term symbol:  6 (1) A                                     R^2 =  6.31856e-13
  Excitation energy:                                             287.532721 eV
  Excited state 6 (singlet, A)                                     [converged]
  Term symbol:  7 (1) A                                     R^2 =  7.40230e-13
  Excitation energy:                                             287.578874 eV
  Excited state 7 (singlet, A)                                     [converged]
  Term symbol:  8 (1) A                                     R^2 =  9.75779e-13
  Excitation energy:                                             287.721753 eV
  Excited state 8 (singlet, A)                                     [converged]
  Term symbol:  9 (1) A                                     R^2 =  4.69708e-13
  Excitation energy:                                             288.039448 eV
  Excited state 9 (singlet, A)                                     [converged]
  Term symbol:  10 (1) A                                    R^2 =  2.01507e-08
  Excitation energy:                                             290.276437 eV
  Excited state 10 (singlet, A)                                     [converged]
  Term symbol:  11 (1) A                                    R^2 =  8.38235e-07
  Excitation energy:                                             290.655663 eV
  Excited state 1 (singlet, A)                                     [converged]
  Term symbol:  2 (1) A                                     R^2 =  7.97811e-14
  Excitation energy:                                               4.350925 eV
  Excited state 2 (singlet, A)                                     [converged]
  Term symbol:  3 (1) A                                     R^2 =  9.18936e-14
  Excitation energy:                                               4.808583 eV
  Excited state 3 (singlet, A)                                     [converged]
  Term symbol:  4 (1) A                                     R^2 =  4.97767e-14
  Excitation energy:                                               5.069596 eV
  Excited state 4 (singlet, A)                                     [converged]
  Term symbol:  5 (1) A                                     R^2 =  2.15389e-13
  Excitation energy:                                               5.910958 eV
  Excited state 5 (singlet, A)                                     [converged]
  Term symbol:  6 (1) A                                     R^2 =  3.15413e-13
  Excitation energy:                                               6.495363 eV
  Excited state 6 (singlet, A)                                     [converged]
  Term symbol:  7 (1) A                                     R^2 =  4.85879e-13
  Excitation energy:                                               6.804360 eV
  Excited state 7 (singlet, A)                                     [converged]
  Term symbol:  8 (1) A                                     R^2 =  6.75654e-07
  Excitation energy:                                               7.584630 eV

                    Orbital Energies (a.u.)
 --------------------------------------------------------------

 Alpha MOs
 -- Occupied --
-15.603 -15.602 -11.312 -11.306 -11.300 -11.298  -1.291  -1.208
 -1.038  -0.884  -0.880  -0.709  -0.693  -0.658  -0.589  -0.560
 -0.517  -0.498  -0.431  -0.412  -0.353

          Ground-State Mulliken Net Atomic Charges

     Atom                 Charge (a.u.)
  ----------------------------------------
      1 C                     0.095213
      2 C                     0.027587
      3 N                    -0.329808
      4 C                     0.104756
      5 C                     0.091650
      6 N                    -0.306040
      7 H                     0.079432
      8 H                     0.105032
      9 H                     0.048001
     10 H                     0.084176
  ----------------------------------------
  Sum of atomic charges =    -0.000000

                    Cartesian Multipole Moments
 -----------------------------------------------------------------
    Charge (ESU x 10^10)
                 0.0000
    Dipole Moment (Debye)
         X       0.1042      Y       0.2204      Z      -0.0464
       Tot       0.2482
    Quadrupole Moments (Debye-Ang)
        XX     -36.4305     XY       5.5649     YY     -31.0909
        XZ       0.5479     YZ       0.0536     ZZ     -37.1218

 Total job time:  9745.54s(wall), 9738.45s(cpu)
        *  Thank you very much for using Q-Chem.  Have a nice day.  *
