 Q-Chem 5.0, Q-Chem, Inc., Pleasanton, CA (2017)
 Q-Chem 5.0.1 for Intel X86 EM64T Linux

User input:
--------------------------------------------------------------
$comment
time = 8.0
$end

$molecule
0 1
c       -1.15610        0.78392       -0.00712
c       -1.15300       -0.76753       -0.01361
n       -0.01457       -1.44392       -0.02885
c        1.15900       -0.74527        0.07380
c        1.16098        0.80004       -0.08778
n        0.00877        1.40018        0.05230
h       -2.08495        1.28539       -0.12578
h       -2.10004       -1.37684        0.18826
h        2.06619       -1.43825       -0.01623
h        2.06980        1.28942        0.04155
$end

$rem
	JOBTYPE         SP
	METHOD          FANO
	basis cc-pCVDZ
	cc_symmetry FALSE
    SYM_TOL		4
	mem_total 50000
	threads 1
	!QSYS wt=12:00:00
	!QSYS mem=60.0gb
	!QSYS vmem=60.0gb
	!ADC_PRINT       6
	!FANO_PRINT      3
$end

$fano_pump
	METHOD                   ADC(2)
	EE_SINGLETS              7
	ADC_DAVIDSON_MAXITER     150
$end

$fano_probe
	METHOD                   CVS-ADC(2)-x
	CC_REST_OCC              6
	EE_SINGLETS              10
	ADC_DAVIDSON_MAXITER     150
$end
--------------------------------------------------------------

             Standard Nuclear Orientation (Angstroms)
    I     Atom           X                Y                Z
 ----------------------------------------------------------------
    1      C       0.1475349498    -1.3901462088     0.0046644958
    2      C      -1.2183351812    -0.6544604606     0.0192965764
    3      N      -1.2765513846     0.6684301040     0.0374619921
    4      C      -0.1068539835     1.3729036085    -0.0694980994
    5      C       1.2568258373     0.6442604538     0.0839669209
    6      N       1.2407190917    -0.6545025358    -0.0586289408
    7      H       0.1512547878    -2.4459493308     0.1212003679
    8      H      -2.2037581821    -1.2008791908    -0.1788523957
    9      H      -0.2885741789     2.4996767888     0.0236702854
   10      H       2.1168738895     1.2143143980    -0.0484289788
 ----------------------------------------------------------------

   15    -262.6399943662      8.59E-09 Convergence criterion met
 Total energy in the final basis set = -262.63999437
  Excited state 1 (singlet, A)                                     [converged]
  Term symbol:  2 (1) A                                     R^2 =  5.26325e-13
  Excitation energy:                                             286.521713 eV
  Excited state 2 (singlet, A)                                     [converged]
  Term symbol:  3 (1) A                                     R^2 =  5.66447e-13
  Excitation energy:                                             286.578220 eV
  Excited state 3 (singlet, A)                                     [converged]
  Term symbol:  4 (1) A                                     R^2 =  5.36669e-13
  Excitation energy:                                             286.619154 eV
  Excited state 4 (singlet, A)                                     [converged]
  Term symbol:  5 (1) A                                     R^2 =  6.36176e-13
  Excitation energy:                                             286.715669 eV
  Excited state 5 (singlet, A)                                     [converged]
  Term symbol:  6 (1) A                                     R^2 =  8.03684e-13
  Excitation energy:                                             287.698776 eV
  Excited state 6 (singlet, A)                                     [converged]
  Term symbol:  7 (1) A                                     R^2 =  5.71203e-13
  Excitation energy:                                             287.728550 eV
  Excited state 7 (singlet, A)                                     [converged]
  Term symbol:  8 (1) A                                     R^2 =  8.78764e-13
  Excitation energy:                                             287.770263 eV
  Excited state 8 (singlet, A)                                     [converged]
  Term symbol:  9 (1) A                                     R^2 =  9.01652e-13
  Excitation energy:                                             287.816539 eV
  Excited state 9 (singlet, A)                                     [converged]
  Term symbol:  10 (1) A                                    R^2 =  4.70686e-09
  Excitation energy:                                             291.026688 eV
  Excited state 10 (singlet, A)                                     [converged]
  Term symbol:  11 (1) A                                    R^2 =  6.65661e-07
  Excitation energy:                                             291.080015 eV
  Excited state 1 (singlet, A)                                     [converged]
  Term symbol:  2 (1) A                                     R^2 =  1.56990e-13
  Excitation energy:                                               3.350029 eV
  Excited state 2 (singlet, A)                                     [converged]
  Term symbol:  3 (1) A                                     R^2 =  8.95629e-14
  Excitation energy:                                               4.009841 eV
  Excited state 3 (singlet, A)                                     [converged]
  Term symbol:  4 (1) A                                     R^2 =  1.85684e-13
  Excitation energy:                                               4.962157 eV
  Excited state 4 (singlet, A)                                     [converged]
  Term symbol:  5 (1) A                                     R^2 =  2.47167e-13
  Excitation energy:                                               5.767594 eV
  Excited state 5 (singlet, A)                                     [converged]
  Term symbol:  6 (1) A                                     R^2 =  2.52731e-13
  Excitation energy:                                               5.836130 eV
  Excited state 6 (singlet, A)                                     [converged]
  Term symbol:  7 (1) A                                     R^2 =  3.43480e-13
  Excitation energy:                                               6.298281 eV
  Excited state 7 (singlet, A)                                     [converged]
  Term symbol:  8 (1) A                                     R^2 =  9.37252e-07
  Excitation energy:                                               7.561154 eV

                    Orbital Energies (a.u.)
 --------------------------------------------------------------

 Alpha MOs
 -- Occupied --
-15.593 -15.591 -11.313 -11.310 -11.306 -11.303  -1.292  -1.222
 -1.022  -0.899  -0.853  -0.714  -0.685  -0.678  -0.595  -0.566
 -0.547  -0.494  -0.446  -0.375  -0.326

          Ground-State Mulliken Net Atomic Charges

     Atom                 Charge (a.u.)
  ----------------------------------------
      1 C                     0.108349
      2 C                     0.056542
      3 N                    -0.309460
      4 C                     0.032438
      5 C                     0.128302
      6 N                    -0.286813
      7 H                     0.056319
      8 H                     0.082652
      9 H                     0.085164
     10 H                     0.046507
  ----------------------------------------
  Sum of atomic charges =    -0.000000

                    Cartesian Multipole Moments
 -----------------------------------------------------------------
    Charge (ESU x 10^10)
                 0.0000
    Dipole Moment (Debye)
         X       0.0469      Y      -0.1184      Z      -0.0139
       Tot       0.1281
    Quadrupole Moments (Debye-Ang)
        XX     -37.3672     XY       5.7880     YY     -29.4344
        XZ       0.4790     YZ      -0.2218     ZZ     -37.1024

 Total job time:  11252.38s(wall), 11242.47s(cpu)
        *  Thank you very much for using Q-Chem.  Have a nice day.  *
