 Q-Chem 5.2 (devel), Q-Chem, Inc., Pleasanton, CA (2019)
 Q-Chem 5.2.0 for Intel X86 EM64T Linux

User input:
--------------------------------------------------------------
$molecule
	0 1
	C    -1.1323119    0.7070367    0.0000000
	C    -1.1382271   -0.6974793    0.0000000
	N    -0.0060276   -1.4310380    0.0000000
	C     1.1322998   -0.7070499    0.0000000
	C     1.1382132    0.6974788    0.0000000
	N     0.0060267    1.4310301    0.0000000
	H    -2.0739153    1.2686307    0.0000000
	H    -2.0845207   -1.2511217    0.0000000
	H     2.0739369   -1.2685931    0.0000000
	H     2.0845260    1.2511057    0.0000000
$end

$rem
	method adc(2)
	basis GEN
	PURECART 2
	ee_singlets 40
	cc_symmetry false
	mem_total 100000
	threads 8
	!QSYS wt=12:00:00
	!QSYS mem=115gb
	!QSYS vmem=115gb
$end

$basis
!631++G** from BSE
H     0
S   3   1.00
      0.1873113696D+02       0.3349460434D-01
      0.2825394365D+01       0.2347269535D+00
      0.6401216923D+00       0.8137573261D+00
S   1   1.00
      0.1612777588D+00       1.0000000
****
C     0
S   6   1.00
      0.3047524880D+04       0.1834737132D-02
      0.4573695180D+03       0.1403732281D-01
      0.1039486850D+03       0.6884262226D-01
      0.2921015530D+02       0.2321844432D+00
      0.9286662960D+01       0.4679413484D+00
      0.3163926960D+01       0.3623119853D+00
SP   3   1.00
      0.7868272350D+01      -0.1193324198D+00       0.6899906659D-01
      0.1881288540D+01      -0.1608541517D+00       0.3164239610D+00
      0.5442492580D+00       0.1143456438D+01       0.7443082909D+00
SP   1   1.00
      0.1687144782D+00       0.1000000000D+01       0.1000000000D+01
SP   1   1.00
      0.4380000000D-01       0.1000000000D+01       0.1000000000D+01
D   1   1.00
      0.8000000000D+00       1.0000000
****
N     0
S   6   1.00
      0.4173511460D+04       0.1834772160D-02
      0.6274579110D+03       0.1399462700D-01
      0.1429020930D+03       0.6858655181D-01
      0.4023432930D+02       0.2322408730D+00
      0.1282021290D+02       0.4690699481D+00
      0.4390437010D+01       0.3604551991D+00
SP   3   1.00
      0.1162636186D+02      -0.1149611817D+00       0.6757974388D-01
      0.2716279807D+01      -0.1691174786D+00       0.3239072959D+00
      0.7722183966D+00       0.1145851947D+01       0.7408951398D+00
SP   1   1.00
      0.2120314975D+00       0.1000000000D+01       0.1000000000D+01
SP   1   1.00
      0.6390000000D-01       0.1000000000D+01       0.1000000000D+01
D   1   1.00
      0.8000000000D+00       1.0000000
****
$end
--------------------------------------------------------------

             Standard Nuclear Orientation (Angstroms)
    I     Atom           X                Y                Z
 ----------------------------------------------------------------
    1      C       1.1352764551    -0.7022642708    -0.0000000000
    2      C       1.1352762355     0.7022641852     0.0000000000
    3      N      -0.0000027348     1.4310479211     0.0000000000
    4      C      -1.1352708351     0.7022719755     0.0000000000
    5      C      -1.1352687621    -0.7022691729    -0.0000000000
    6      N      -0.0000028228    -1.4310455636    -0.0000000000
    7      H       2.0792367561    -1.2598875610    -0.0000000000
    8      H       2.0792296800     1.2598871575     0.0000000000
    9      H      -2.0792646219     1.2598443242     0.0000000000
   10      H      -2.0792414717    -1.2598767261    -0.0000000000
 ----------------------------------------------------------------

   15    -262.6842688318      1.72E-09 Convergence criterion met
 Total energy in the final basis set = -262.68426883
  Term symbol:  2 (1) A                                     R^2 =  1.16988e-13
  Excitation energy:                                               4.312770 eV
  Term symbol:  3 (1) A                                     R^2 =  2.30554e-13
  Excitation energy:                                               4.992442 eV
  Term symbol:  4 (1) A                                     R^2 =  1.01492e-13
  Excitation energy:                                               5.119917 eV
  Term symbol:  5 (1) A                                     R^2 =  8.88686e-14
  Excitation energy:                                               5.999874 eV
  Term symbol:  6 (1) A                                     R^2 =  2.49525e-13
  Excitation energy:                                               6.553859 eV
  Term symbol:  7 (1) A                                     R^2 =  8.05654e-14
  Excitation energy:                                               6.777233 eV
  Term symbol:  8 (1) A                                     R^2 =  2.72961e-14
  Excitation energy:                                               6.984631 eV
  Term symbol:  9 (1) A                                     R^2 =  2.56608e-13
  Excitation energy:                                               7.148363 eV
  Term symbol:  10 (1) A                                    R^2 =  1.86388e-13
  Excitation energy:                                               7.384586 eV
  Excited state 10 (singlet, A)                                    [converged]
  Term symbol:  11 (1) A                                    R^2 =  6.28561e-14
  Excitation energy:                                               7.439219 eV
  Excited state 11 (singlet, A)                                    [converged]
  Term symbol:  12 (1) A                                    R^2 =  2.73022e-13
  Excitation energy:                                               7.823256 eV
  Excited state 12 (singlet, A)                                    [converged]
  Term symbol:  13 (1) A                                    R^2 =  5.90043e-13
  Excitation energy:                                               7.853380 eV
  Excited state 13 (singlet, A)                                    [converged]
  Term symbol:  14 (1) A                                    R^2 =  4.95551e-13
  Excitation energy:                                               7.910216 eV
  Excited state 14 (singlet, A)                                    [converged]
  Term symbol:  15 (1) A                                    R^2 =  4.42283e-13
  Excitation energy:                                               7.922179 eV
  Excited state 15 (singlet, A)                                    [converged]
  Term symbol:  16 (1) A                                    R^2 =  5.72081e-13
  Excitation energy:                                               8.004916 eV
  Excited state 16 (singlet, A)                                    [converged]
  Term symbol:  17 (1) A                                    R^2 =  1.34226e-13
  Excitation energy:                                               8.072015 eV
  Excited state 17 (singlet, A)                                    [converged]
  Excitation energy:                                               8.996607 eV
  Excited state 28 (singlet, A)                                    [converged]
  Term symbol:  29 (1) A                                    R^2 =  1.13612e-09
  Excitation energy:                                               9.058093 eV
  Excited state 29 (singlet, A)                                    [converged]
  Term symbol:  30 (1) A                                    R^2 =  1.32751e-07
  Excitation energy:                                               9.152049 eV
  Excited state 30 (singlet, A)                                    [converged]
  Term symbol:  31 (1) A                                    R^2 =  1.95633e-10
  Excitation energy:                                               9.170983 eV
  Excited state 31 (singlet, A)                                    [converged]
  Term symbol:  32 (1) A                                    R^2 =  6.83235e-10
  Excitation energy:                                               9.196966 eV
  Excited state 32 (singlet, A)                                [not converged]
  Term symbol:  33 (1) A                                    R^2 =  3.75802e-06
  Excitation energy:                                               9.276637 eV
  Excited state 33 (singlet, A)                                    [converged]
  Term symbol:  34 (1) A                                    R^2 =  3.85115e-08
  Excitation energy:                                               9.295526 eV
  Excited state 34 (singlet, A)                                    [converged]
  Term symbol:  35 (1) A                                    R^2 =  1.68344e-09
  Excitation energy:                                               9.427620 eV
  Excited state 35 (singlet, A)                                    [converged]
  Term symbol:  36 (1) A                                    R^2 =  2.15494e-07
  Excitation energy:                                               9.437317 eV
  Excited state 36 (singlet, A)                                    [converged]
  Term symbol:  37 (1) A                                    R^2 =  2.92694e-07
  Excitation energy:                                               9.538749 eV
  Excited state 37 (singlet, A)                                    [converged]
  Term symbol:  38 (1) A                                    R^2 =  2.13759e-08
  Excitation energy:                                               9.570797 eV
  Excited state 38 (singlet, A)                                [not converged]
  Term symbol:  39 (1) A                                    R^2 =  9.34425e-06
  Excitation energy:                                               9.686004 eV
  Excited state 39 (singlet, A)                                    [converged]
  Term symbol:  40 (1) A                                    R^2 =  9.30026e-07
  Excitation energy:                                               9.752620 eV
  Excited state 40 (singlet, A)                                [not converged]
  Term symbol:  41 (1) A                                    R^2 =  1.08921e-02
  Excitation energy:                                               9.776147 eV

             Orbital Energies (a.u.) and Symmetries
 --------------------------------------------------------------

 Alpha MOs, Restricted
 -- Occupied --
-15.612 -15.612 -11.299 -11.299 -11.297 -11.297  -1.307  -1.222
  1 A'    2 A'    3 A'    4 A'    5 A'    6 A'    7 A'    8 A'
 -1.055  -0.906  -0.888  -0.726  -0.704  -0.679  -0.611  -0.572
  9 A'   10 A'   11 A'   12 A'   13 A'   14 A'   15 A'    1 A"
 -0.552  -0.506  -0.437  -0.419  -0.361
 16 A'   17 A'    2 A"   18 A'    3 A"

 Beta MOs, Restricted
 -- Occupied --
-15.612 -15.612 -11.299 -11.299 -11.297 -11.297  -1.307  -1.222
  1 A'    2 A'    3 A'    4 A'    5 A'    6 A'    7 A'    8 A'
 -1.055  -0.906  -0.888  -0.726  -0.704  -0.679  -0.611  -0.572
  9 A'   10 A'   11 A'   12 A'   13 A'   14 A'   15 A'    1 A"
 -0.552  -0.506  -0.437  -0.419  -0.361
 16 A'   17 A'    2 A"   18 A'    3 A"

          Ground-State Mulliken Net Atomic Charges

     Atom                 Charge (a.u.)
  ----------------------------------------
      1 C                    -0.119876
      2 C                    -0.119878
      3 N                    -0.240407
      4 C                    -0.119862
      5 C                    -0.119870
      6 N                    -0.240403
      7 H                     0.240075
      8 H                     0.240075
      9 H                     0.240073
     10 H                     0.240073
  ----------------------------------------
  Sum of atomic charges =     0.000000

                    Cartesian Multipole Moments
 -----------------------------------------------------------------
    Charge (ESU x 10^10)
                 0.0000
    Dipole Moment (Debye)
         X      -0.0000      Y      -0.0000      Z      -0.0000
       Tot       0.0001
    Quadrupole Moments (Debye-Ang)
        XX     -26.4682     XY       0.0000     YY     -42.6080
        XZ      -0.0000     YZ       0.0000     ZZ     -37.4369

 Total job time:  4988.36s(wall), 28492.10s(cpu)
        *  Thank you very much for using Q-Chem.  Have a nice day.  *
