 Q-Chem 5.2 (devel), Q-Chem, Inc., Pleasanton, CA (2019)
 Q-Chem 5.2.0 for Intel X86 EM64T Linux

User input:
--------------------------------------------------------------
$molecule
	0 1
	C    -1.1323119    0.7070367    0.0000000
	C    -1.1382271   -0.6974793    0.0000000
	N    -0.0060276   -1.4310380    0.0000000
	C     1.1322998   -0.7070499    0.0000000
	C     1.1382132    0.6974788    0.0000000
	N     0.0060267    1.4310301    0.0000000
	H    -2.0739153    1.2686307    0.0000000
	H    -2.0845207   -1.2511217    0.0000000
	H     2.0739369   -1.2685931    0.0000000
	H     2.0845260    1.2511057    0.0000000
$end

$rem
	method cvs-adc(2)-x
	basis cc-pVDZ
	ee_singlets 50
	cc_symmetry false
	cc_rest_occ 6
	mem_total 200000
	threads 8
	!QSYS wt=12:00:00
	!QSYS mem=200.0gb
	!QSYS vmem=200.0gb
$end

--------------------------------------------------------------

             Standard Nuclear Orientation (Angstroms)
    I     Atom           X                Y                Z
 ----------------------------------------------------------------
    1      C       1.1352764551    -0.7022642708    -0.0000000000
    2      C       1.1352762355     0.7022641852     0.0000000000
    3      N      -0.0000027348     1.4310479211     0.0000000000
    4      C      -1.1352708351     0.7022719755     0.0000000000
    5      C      -1.1352687621    -0.7022691729    -0.0000000000
    6      N      -0.0000028228    -1.4310455636    -0.0000000000
    7      H       2.0792367561    -1.2598875610    -0.0000000000
    8      H       2.0792296800     1.2598871575     0.0000000000
    9      H      -2.0792646219     1.2598443242     0.0000000000
   10      H      -2.0792414717    -1.2598767261    -0.0000000000
 ----------------------------------------------------------------

   12    -262.6991552869      9.81E-09 Convergence criterion met
 Total energy in the final basis set = -262.69915529
  Term symbol:  2 (1) A                                     R^2 =  2.47904e-08
  Excitation energy:                                             287.319992 eV
  Term symbol:  3 (1) A                                     R^2 =  8.82131e-09
  Excitation energy:                                             287.321359 eV
  Term symbol:  4 (1) A                                     R^2 =  3.72282e-09
  Excitation energy:                                             287.345871 eV
  Term symbol:  5 (1) A                                     R^2 =  2.38689e-08
  Excitation energy:                                             287.349729 eV
  Term symbol:  6 (1) A                                     R^2 =  8.53670e-10
  Excitation energy:                                             288.227033 eV
  Term symbol:  7 (1) A                                     R^2 =  4.65951e-08
  Excitation energy:                                             288.227326 eV
  Term symbol:  8 (1) A                                     R^2 =  1.86489e-08
  Excitation energy:                                             288.234906 eV
  Term symbol:  9 (1) A                                     R^2 =  1.22847e-08
  Excitation energy:                                             288.236037 eV
  Term symbol:  10 (1) A                                    R^2 =  7.33750e-08
  Excitation energy:                                             291.490868 eV
  Excited state 10 (singlet, A)                                    [converged]
  Term symbol:  11 (1) A                                    R^2 =  2.15269e-08
  Excitation energy:                                             291.491808 eV
  Excited state 11 (singlet, A)                                    [converged]
  Term symbol:  12 (1) A                                    R^2 =  5.71316e-08
  Excitation energy:                                             291.523968 eV
  Excited state 12 (singlet, A)                                    [converged]
  Term symbol:  13 (1) A                                    R^2 =  1.63215e-07
  Excitation energy:                                             291.528709 eV
  Excited state 13 (singlet, A)                                    [converged]
  Term symbol:  14 (1) A                                    R^2 =  6.34094e-09
  Excitation energy:                                             292.956926 eV
  Excited state 14 (singlet, A)                                    [converged]
  Term symbol:  15 (1) A                                    R^2 =  8.14226e-09
  Excitation energy:                                             292.958357 eV
  Excited state 15 (singlet, A)                                    [converged]
  Term symbol:  16 (1) A                                    R^2 =  3.99190e-09
  Excitation energy:                                             292.985127 eV
  Excited state 16 (singlet, A)                                    [converged]
  Term symbol:  17 (1) A                                    R^2 =  9.17216e-09
  Excitation energy:                                             292.986868 eV
  Excited state 17 (singlet, A)                                    [converged]
  Excitation energy:                                             297.100818 eV
  Excited state 38 (singlet, A)                                    [converged]
  Term symbol:  39 (1) A                                    R^2 =  5.02474e-07
  Excitation energy:                                             297.101488 eV
  Excited state 39 (singlet, A)                                [not converged]
  Term symbol:  40 (1) A                                    R^2 =  1.20613e-05
  Excitation energy:                                             297.115718 eV
  Excited state 40 (singlet, A)                                [not converged]
  Term symbol:  41 (1) A                                    R^2 =  1.07681e-04
  Excitation energy:                                             297.119485 eV
  Excited state 41 (singlet, A)                                [not converged]
  Term symbol:  42 (1) A                                    R^2 =  1.74169e-06
  Excitation energy:                                             297.323199 eV
  Excited state 42 (singlet, A)                                [not converged]
  Term symbol:  43 (1) A                                    R^2 =  1.59914e-05
  Excitation energy:                                             297.324992 eV
  Excited state 43 (singlet, A)                                [not converged]
  Term symbol:  44 (1) A                                    R^2 =  1.22376e-05
  Excitation energy:                                             297.325075 eV
  Excited state 44 (singlet, A)                                [not converged]
  Term symbol:  45 (1) A                                    R^2 =  5.93621e-05
  Excitation energy:                                             297.326861 eV
  Excited state 45 (singlet, A)                                [not converged]
  Term symbol:  46 (1) A                                    R^2 =  3.23131e-04
  Excitation energy:                                             297.553930 eV
  Excited state 46 (singlet, A)                                [not converged]
  Term symbol:  47 (1) A                                    R^2 =  5.29392e-04
  Excitation energy:                                             297.554857 eV
  Excited state 47 (singlet, A)                                [not converged]
  Term symbol:  48 (1) A                                    R^2 =  5.65581e-04
  Excitation energy:                                             297.554898 eV
  Excited state 48 (singlet, A)                                [not converged]
  Term symbol:  49 (1) A                                    R^2 =  4.96883e-04
  Excitation energy:                                             297.556085 eV
  Excited state 49 (singlet, A)                                [not converged]
  Term symbol:  50 (1) A                                    R^2 =  1.95242e-05
  Excitation energy:                                             297.932295 eV
  Excited state 50 (singlet, A)                                [not converged]
  Term symbol:  51 (1) A                                    R^2 =  2.18522e-05
  Excitation energy:                                             297.959563 eV

             Orbital Energies (a.u.) and Symmetries
 --------------------------------------------------------------

 Alpha MOs, Restricted
 -- Occupied --
-15.600 -15.600 -11.293 -11.293 -11.292 -11.292  -1.299  -1.215
  1 A'    2 A'    3 A'    4 A'    5 A'    6 A'    7 A'    8 A'
 -1.048  -0.899  -0.882  -0.719  -0.696  -0.672  -0.603  -0.567
  9 A'   10 A'   11 A'   12 A'   13 A'   14 A'   15 A'    1 A"
 -0.544  -0.501  -0.430  -0.412  -0.356
 16 A'   17 A'    2 A"   18 A'    3 A"

 Beta MOs, Restricted
 -- Occupied --
-15.600 -15.600 -11.293 -11.293 -11.292 -11.292  -1.299  -1.215
  1 A'    2 A'    3 A'    4 A'    5 A'    6 A'    7 A'    8 A'
 -1.048  -0.899  -0.882  -0.719  -0.696  -0.672  -0.603  -0.567
  9 A'   10 A'   11 A'   12 A'   13 A'   14 A'   15 A'    1 A"
 -0.544  -0.501  -0.430  -0.412  -0.356
 16 A'   17 A'    2 A"   18 A'    3 A"

          Ground-State Mulliken Net Atomic Charges

     Atom                 Charge (a.u.)
  ----------------------------------------
      1 C                     0.093170
      2 C                     0.093173
      3 N                    -0.296618
      4 C                     0.093175
      5 C                     0.093166
      6 N                    -0.296618
      7 H                     0.055138
      8 H                     0.055136
      9 H                     0.055139
     10 H                     0.055138
  ----------------------------------------
  Sum of atomic charges =     0.000000

                    Cartesian Multipole Moments
 -----------------------------------------------------------------
    Charge (ESU x 10^10)
                -0.0000
    Dipole Moment (Debye)
         X      -0.0000      Y      -0.0000      Z      -0.0000
       Tot       0.0000
    Quadrupole Moments (Debye-Ang)
        XX     -26.4593     XY       0.0000     YY     -41.1538
        XZ       0.0000     YZ      -0.0000     ZZ     -36.6630

 Total job time:  6366.61s(wall), 38396.37s(cpu)
        *  Thank you very much for using Q-Chem.  Have a nice day.  *
