 Q-Chem 5.0, Q-Chem, Inc., Pleasanton, CA (2017)
 Q-Chem 5.0.1 for Intel X86 EM64T Linux

User input:
--------------------------------------------------------------
$molecule
	0 1
	C    -1.1323119    0.7070367    0.0000000
	C    -1.1382271   -0.6974793    0.0000000
	N    -0.0060276   -1.4310380    0.0000000
	C     1.1322998   -0.7070499    0.0000000
	C     1.1382132    0.6974788    0.0000000
	N     0.0060267    1.4310301    0.0000000
	H    -2.0739153    1.2686307    0.0000000
	H    -2.0845207   -1.2511217    0.0000000
	H     2.0739369   -1.2685931    0.0000000
	H     2.0845260    1.2511057    0.0000000
$end

$rem
	JOBTYPE         SP
	METHOD          FANO
	basis GEN
	PURECART 2
	cc_symmetry false
	mem_total 100000
	threads 12
	!QSYS wt=12:00:00
	!QSYS mem=115gb
	!QSYS vmem=115gb
	!ADC_PRINT       6
	!FANO_PRINT      3
$end

$fano_pump
	METHOD                   ADC(2)
	EE_SINGLETS              20
	ADC_DAVIDSON_MAXITER     150
$end

$fano_probe
	METHOD                   CVS-ADC(2)-x
	CC_REST_OCC              6
	EE_SINGLETS              20
	ADC_DAVIDSON_MAXITER     150
$end

$basis
!631++G** from BSE
H     0
S   3   1.00
      0.1873113696D+02       0.3349460434D-01
      0.2825394365D+01       0.2347269535D+00
      0.6401216923D+00       0.8137573261D+00
S   1   1.00
      0.1612777588D+00       1.0000000
S   1   1.00
      0.3600000000D-01       0.1000000000D+01
P   1   1.00
      0.1100000000D+01       1.0000000
****
C     0
S   6   1.00
      0.3047524880D+04       0.1834737132D-02
      0.4573695180D+03       0.1403732281D-01
      0.1039486850D+03       0.6884262226D-01
      0.2921015530D+02       0.2321844432D+00
      0.9286662960D+01       0.4679413484D+00
      0.3163926960D+01       0.3623119853D+00
SP   3   1.00
      0.7868272350D+01      -0.1193324198D+00       0.6899906659D-01
      0.1881288540D+01      -0.1608541517D+00       0.3164239610D+00
      0.5442492580D+00       0.1143456438D+01       0.7443082909D+00
SP   1   1.00
      0.1687144782D+00       0.1000000000D+01       0.1000000000D+01
SP   1   1.00
      0.4380000000D-01       0.1000000000D+01       0.1000000000D+01
D   1   1.00
      0.8000000000D+00       1.0000000
****
N     0
S   6   1.00
      0.4173511460D+04       0.1834772160D-02
      0.6274579110D+03       0.1399462700D-01
      0.1429020930D+03       0.6858655181D-01
      0.4023432930D+02       0.2322408730D+00
      0.1282021290D+02       0.4690699481D+00
      0.4390437010D+01       0.3604551991D+00
SP   3   1.00
      0.1162636186D+02      -0.1149611817D+00       0.6757974388D-01
      0.2716279807D+01      -0.1691174786D+00       0.3239072959D+00
      0.7722183966D+00       0.1145851947D+01       0.7408951398D+00
SP   1   1.00
      0.2120314975D+00       0.1000000000D+01       0.1000000000D+01
SP   1   1.00
      0.6390000000D-01       0.1000000000D+01       0.1000000000D+01
D   1   1.00
      0.8000000000D+00       1.0000000
****
$end
--------------------------------------------------------------

             Standard Nuclear Orientation (Angstroms)
    I     Atom           X                Y                Z
 ----------------------------------------------------------------
    1      C       1.1352764551    -0.7022642708    -0.0000000000
    2      C       1.1352762355     0.7022641852     0.0000000000
    3      N      -0.0000027348     1.4310479211     0.0000000000
    4      C      -1.1352708351     0.7022719755     0.0000000000
    5      C      -1.1352687621    -0.7022691729    -0.0000000000
    6      N      -0.0000028228    -1.4310455636    -0.0000000000
    7      H       2.0792367561    -1.2598875610    -0.0000000000
    8      H       2.0792296800     1.2598871575     0.0000000000
    9      H      -2.0792646219     1.2598443242     0.0000000000
   10      H      -2.0792414717    -1.2598767261    -0.0000000000
 ----------------------------------------------------------------

   15    -262.6913990169      5.27E-09 Convergence criterion met
 Total energy in the final basis set = -262.69139902
  Term symbol:  2 (1) A                                     R^2 =  2.42183e-11
  Excitation energy:                                             286.791446 eV
  Term symbol:  3 (1) A                                     R^2 =  2.38079e-11
  Excitation energy:                                             286.792791 eV
  Term symbol:  4 (1) A                                     R^2 =  2.45035e-11
  Excitation energy:                                             286.818820 eV
  Term symbol:  5 (1) A                                     R^2 =  2.43090e-11
  Excitation energy:                                             286.822462 eV
  Term symbol:  6 (1) A                                     R^2 =  2.65304e-11
  Excitation energy:                                             287.711872 eV
  Term symbol:  7 (1) A                                     R^2 =  2.79180e-11
  Excitation energy:                                             287.712389 eV
  Term symbol:  8 (1) A                                     R^2 =  2.72188e-11
  Excitation energy:                                             287.721344 eV
  Term symbol:  9 (1) A                                     R^2 =  2.78461e-11
  Excitation energy:                                             287.722547 eV
  Term symbol:  10 (1) A                                    R^2 =  1.68030e-11
  Excitation energy:                                             289.559000 eV
  Excited state 10 (singlet, A)                                    [converged]
  Term symbol:  11 (1) A                                    R^2 =  1.68290e-11
  Excitation energy:                                             289.559399 eV
  Excited state 11 (singlet, A)                                    [converged]
  Term symbol:  12 (1) A                                    R^2 =  1.69167e-11
  Excitation energy:                                             289.592388 eV
  Excited state 12 (singlet, A)                                    [converged]
  Term symbol:  13 (1) A                                    R^2 =  1.68929e-11
  Excitation energy:                                             289.593094 eV
  Excited state 13 (singlet, A)                                    [converged]
  Term symbol:  14 (1) A                                    R^2 =  4.84611e-11
  Excitation energy:                                             290.443891 eV
  Excited state 14 (singlet, A)                                    [converged]
  Term symbol:  15 (1) A                                    R^2 =  7.36622e-11
  Excitation energy:                                             290.443958 eV
  Excited state 15 (singlet, A)                                    [converged]
  Term symbol:  16 (1) A                                    R^2 =  2.21783e-10
  Excitation energy:                                             290.476567 eV
  Excited state 16 (singlet, A)                                    [converged]
  Term symbol:  17 (1) A                                    R^2 =  1.98929e-10
  Excitation energy:                                             290.477415 eV
  Excited state 17 (singlet, A)                                    [converged]
  Excitation energy:                                               6.743624 eV
  Term symbol:  8 (1) A                                     R^2 =  2.08129e-13
  Excitation energy:                                               6.801764 eV
  Term symbol:  9 (1) A                                     R^2 =  1.32320e-13
  Excitation energy:                                               6.953178 eV
  Term symbol:  10 (1) A                                    R^2 =  3.67905e-13
  Excitation energy:                                               7.172806 eV
  Excited state 10 (singlet, A)                                    [converged]
  Term symbol:  11 (1) A                                    R^2 =  1.35671e-13
  Excitation energy:                                               7.187752 eV
  Excited state 11 (singlet, A)                                    [converged]
  Term symbol:  12 (1) A                                    R^2 =  3.94358e-13
  Excitation energy:                                               7.593123 eV
  Excited state 12 (singlet, A)                                    [converged]
  Term symbol:  13 (1) A                                    R^2 =  5.86271e-13
  Excitation energy:                                               7.662421 eV
  Excited state 13 (singlet, A)                                    [converged]
  Term symbol:  14 (1) A                                    R^2 =  4.23623e-13
  Excitation energy:                                               7.691693 eV
  Excited state 14 (singlet, A)                                    [converged]
  Term symbol:  15 (1) A                                    R^2 =  5.13771e-13
  Excitation energy:                                               7.823565 eV
  Excited state 15 (singlet, A)                                    [converged]
  Term symbol:  16 (1) A                                    R^2 =  5.20742e-13
  Excitation energy:                                               7.896426 eV
  Excited state 16 (singlet, A)                                    [converged]
  Term symbol:  17 (1) A                                    R^2 =  7.73216e-13
  Excitation energy:                                               7.935928 eV
  Excited state 17 (singlet, A)                                    [converged]
  Term symbol:  18 (1) A                                    R^2 =  4.60736e-13
  Excitation energy:                                               8.085978 eV
  Excited state 18 (singlet, A)                                    [converged]
  Term symbol:  19 (1) A                                    R^2 =  4.99708e-09
  Excitation energy:                                               8.222153 eV
  Excited state 19 (singlet, A)                                    [converged]
  Term symbol:  20 (1) A                                    R^2 =  9.83498e-07
  Excitation energy:                                               8.325042 eV
  Excited state 20 (singlet, A)                                    [converged]
  Term symbol:  21 (1) A                                    R^2 =  4.38106e-08
  Excitation energy:                                               8.399084 eV

             Orbital Energies (a.u.) and Symmetries
 --------------------------------------------------------------

 Alpha MOs, Restricted
 -- Occupied --
-15.612 -15.612 -11.298 -11.298 -11.297 -11.297  -1.307  -1.222
  1 A'    2 A'    3 A'    4 A'    5 A'    6 A'    7 A'    8 A'
 -1.054  -0.906  -0.888  -0.726  -0.703  -0.678  -0.610  -0.572
  9 A'   10 A'   11 A'   12 A'   13 A'   14 A'   15 A'    1 A"
 -0.551  -0.506  -0.436  -0.418  -0.361
 16 A'   17 A'    2 A"   18 A'    3 A"

 Beta MOs, Restricted
 -- Occupied --
-15.612 -15.612 -11.298 -11.298 -11.297 -11.297  -1.307  -1.222
  1 A'    2 A'    3 A'    4 A'    5 A'    6 A'    7 A'    8 A'
 -1.054  -0.906  -0.888  -0.726  -0.703  -0.678  -0.610  -0.572
  9 A'   10 A'   11 A'   12 A'   13 A'   14 A'   15 A'    1 A"
 -0.551  -0.506  -0.436  -0.418  -0.361
 16 A'   17 A'    2 A"   18 A'    3 A"

          Ground-State Mulliken Net Atomic Charges

     Atom                 Charge (a.u.)
  ----------------------------------------
      1 C                    -0.045367
      2 C                    -0.045368
      3 N                    -0.231399
      4 C                    -0.045349
      5 C                    -0.045361
      6 N                    -0.231393
      7 H                     0.161061
      8 H                     0.161061
      9 H                     0.161056
     10 H                     0.161059
  ----------------------------------------
  Sum of atomic charges =     0.000000

                    Cartesian Multipole Moments
 -----------------------------------------------------------------
    Charge (ESU x 10^10)
                 0.0000
    Dipole Moment (Debye)
         X      -0.0000      Y      -0.0000      Z      -0.0000
       Tot       0.0001
    Quadrupole Moments (Debye-Ang)
        XX     -26.4374     XY       0.0000     YY     -42.5788
        XZ       0.0000     YZ       0.0000     ZZ     -37.3767

 Total job time:  8895.67s(wall), 72210.03s(cpu)
        *  Thank you very much for using Q-Chem.  Have a nice day.  *
