 Q-Chem 5.0, Q-Chem, Inc., Pleasanton, CA (2017)
 Q-Chem 5.0.1 for Intel X86 EM64T Linux

User input:
--------------------------------------------------------------
$comment
time = 0.0
$end

$molecule
0 1
c       -1.17934        0.72642       -0.03864
c       -1.16139       -0.67526        0.04664
n        0.04374       -1.51664       -0.04737
c        1.12908       -0.67919        0.01566
c        1.15978        0.69256        0.09440
n        0.00764        1.46185       -0.05387
h       -2.20725        1.30571        0.11571
h       -2.10831       -1.24850        0.21739
h        2.12339       -1.36374       -0.29036
h        2.09637        1.29860       -0.04314
$end

$rem
	JOBTYPE         SP
	METHOD          FANO
	basis cc-pCVDZ
	cc_symmetry FALSE
    SYM_TOL		4
	mem_total 50000
	threads 1
	!QSYS wt=12:00:00
	!QSYS mem=60.0gb
	!QSYS vmem=60.0gb
	!ADC_PRINT       6
	!FANO_PRINT      3
$end

$fano_pump
	METHOD                   ADC(2)
	EE_SINGLETS              7
	ADC_DAVIDSON_MAXITER     150
$end

$fano_probe
	METHOD                   CVS-ADC(2)-x
	CC_REST_OCC              6
	EE_SINGLETS              10
	ADC_DAVIDSON_MAXITER     150
$end
--------------------------------------------------------------

             Standard Nuclear Orientation (Angstroms)
    I     Atom           X                Y                Z
 ----------------------------------------------------------------
    1      C       1.3834852669     0.0130724670    -0.0575138645
    2      C       0.6223278554     1.1899287206     0.0316514683
    3      N      -0.8469553317     1.2589602311    -0.0427667286
    4      C      -1.3179023091    -0.0277455020     0.0337545097
    5      C      -0.6116253835    -1.2043063829     0.1093715571
    6      N       0.7711084105    -1.2419197018    -0.0575121448
    7      H       2.5639619468     0.0716670610     0.0804762676
    8      H       1.1201826560     2.1805954857     0.1901983210
    9      H      -2.5281224635     0.0197943592    -0.2561014172
   10      H      -1.0828062692    -2.2170364281    -0.0162030810
 ----------------------------------------------------------------

   17    -262.6319585133      5.02E-09 Convergence criterion met
 Total energy in the final basis set = -262.63195851
  Excited state 1 (singlet, A)                                     [converged]
  Term symbol:  2 (1) A                                     R^2 =  2.13880e-13
  Excitation energy:                                             286.316537 eV
  Excited state 2 (singlet, A)                                     [converged]
  Term symbol:  3 (1) A                                     R^2 =  1.23903e-13
  Excitation energy:                                             286.370571 eV
  Excited state 3 (singlet, A)                                     [converged]
  Term symbol:  4 (1) A                                     R^2 =  3.95954e-13
  Excitation energy:                                             286.688464 eV
  Excited state 4 (singlet, A)                                     [converged]
  Term symbol:  5 (1) A                                     R^2 =  1.48865e-13
  Excitation energy:                                             286.842724 eV
  Excited state 5 (singlet, A)                                     [converged]
  Term symbol:  6 (1) A                                     R^2 =  1.97650e-13
  Excitation energy:                                             287.586341 eV
  Excited state 6 (singlet, A)                                     [converged]
  Term symbol:  7 (1) A                                     R^2 =  7.10634e-13
  Excitation energy:                                             287.730060 eV
  Excited state 7 (singlet, A)                                     [converged]
  Term symbol:  8 (1) A                                     R^2 =  2.90271e-13
  Excitation energy:                                             287.954266 eV
  Excited state 8 (singlet, A)                                     [converged]
  Term symbol:  9 (1) A                                     R^2 =  6.81099e-13
  Excitation energy:                                             287.981535 eV
  Excited state 9 (singlet, A)                                     [converged]
  Term symbol:  10 (1) A                                    R^2 =  4.64214e-12
  Excitation energy:                                             290.215798 eV
  Excited state 10 (singlet, A)                                     [converged]
  Term symbol:  11 (1) A                                    R^2 =  9.63508e-07
  Excitation energy:                                             290.501642 eV
  Excited state 1 (singlet, A)                                     [converged]
  Term symbol:  2 (1) A                                     R^2 =  8.74815e-14
  Excitation energy:                                               4.030786 eV
  Excited state 2 (singlet, A)                                     [converged]
  Term symbol:  3 (1) A                                     R^2 =  2.19688e-13
  Excitation energy:                                               4.833330 eV
  Excited state 3 (singlet, A)                                     [converged]
  Term symbol:  4 (1) A                                     R^2 =  2.65697e-13
  Excitation energy:                                               5.243929 eV
  Excited state 4 (singlet, A)                                     [converged]
  Term symbol:  5 (1) A                                     R^2 =  3.20485e-13
  Excitation energy:                                               5.588500 eV
  Excited state 5 (singlet, A)                                     [converged]
  Term symbol:  6 (1) A                                     R^2 =  7.39223e-10
  Excitation energy:                                               6.576579 eV
  Excited state 6 (singlet, A)                                     [converged]
  Term symbol:  7 (1) A                                     R^2 =  1.84965e-08
  Excitation energy:                                               6.803511 eV
  Excited state 7 (singlet, A)                                     [converged]
  Term symbol:  8 (1) A                                     R^2 =  7.05964e-07
  Excitation energy:                                               7.050392 eV

                    Orbital Energies (a.u.)
 --------------------------------------------------------------

 Alpha MOs
 -- Occupied --
-15.622 -15.618 -11.313 -11.310 -11.309 -11.304  -1.274  -1.190
 -1.042  -0.910  -0.849  -0.701  -0.679  -0.647  -0.592  -0.549
 -0.516  -0.497  -0.434  -0.411  -0.361

          Ground-State Mulliken Net Atomic Charges

     Atom                 Charge (a.u.)
  ----------------------------------------
      1 C                     0.053579
      2 C                     0.072574
      3 N                    -0.316818
      4 C                     0.043174
      5 C                     0.100423
      6 N                    -0.312753
      7 H                     0.102863
      8 H                     0.074891
      9 H                     0.097748
     10 H                     0.084318
  ----------------------------------------
  Sum of atomic charges =    -0.000000

                    Cartesian Multipole Moments
 -----------------------------------------------------------------
    Charge (ESU x 10^10)
                 0.0000
    Dipole Moment (Debye)
         X       0.2363      Y      -0.0649      Z       0.1884
       Tot       0.3091
    Quadrupole Moments (Debye-Ang)
        XX     -31.0986     XY       6.7633     YY     -37.2455
        XZ       0.9922     YZ       0.4328     ZZ     -37.3505

 Total job time:  9265.91s(wall), 9265.78s(cpu)
        *  Thank you very much for using Q-Chem.  Have a nice day.  *
