 Q-Chem 5.0, Q-Chem, Inc., Pleasanton, CA (2017)
 Q-Chem 5.0.1 for Intel X86 EM64T Linux

User input:
--------------------------------------------------------------
$comment
time = 12.0
$end

$molecule
0 1
c       -1.17030        0.74283        0.01198
c       -1.15658       -0.72624        0.09658
n       -0.03253       -1.48383       -0.05724
c        1.21856       -0.77846       -0.00621
c        1.15656        0.74964        0.03992
n       -0.01566        1.48532       -0.05085
h       -2.23878        1.33599       -0.12208
h       -2.04728       -1.22776       -0.14374
h        2.28912       -1.27081       -0.01263
h        2.09155        1.28746        0.08477
$end

$rem
	JOBTYPE         SP
	METHOD          FANO
	basis cc-pCVDZ
	cc_symmetry FALSE
    SYM_TOL		4
	mem_total 50000
	threads 1
	!QSYS wt=12:00:00
	!QSYS mem=60.0gb
	!QSYS vmem=60.0gb
	!ADC_PRINT       6
	!FANO_PRINT      3
$end

$fano_pump
	METHOD                   ADC(2)
	EE_SINGLETS              7
	ADC_DAVIDSON_MAXITER     150
$end

$fano_probe
	METHOD                   CVS-ADC(2)-x
	CC_REST_OCC              6
	EE_SINGLETS              10
	ADC_DAVIDSON_MAXITER     150
$end
--------------------------------------------------------------

             Standard Nuclear Orientation (Angstroms)
    I     Atom           X                Y                Z
 ----------------------------------------------------------------
    1      C       1.3862406484     0.0043252332     0.0183587843
    2      C       0.5848855989     1.2355624950     0.1043643256
    3      N      -0.7697305775     1.2708073409    -0.0533202283
    4      C      -1.4458263542     0.0034360781    -0.0081354004
    5      C      -0.5724150365    -1.2520325881     0.0367275628
    6      N       0.8117643708    -1.2421669051    -0.0499558858
    7      H       2.6064673737     0.0787569780    -0.1118987829
    8      H       1.0671776079     2.1379186280    -0.1317931007
    9      H      -2.6132160374    -0.1566984566    -0.0184654987
   10      H      -1.0719746369    -2.2082075093     0.0771985477
 ----------------------------------------------------------------

   17    -262.6294833073      5.19E-09 Convergence criterion met
 Total energy in the final basis set = -262.62948331
  Excited state 1 (singlet, A)                                     [converged]
  Term symbol:  2 (1) A                                     R^2 =  1.46723e-13
  Excitation energy:                                             286.590074 eV
  Excited state 2 (singlet, A)                                     [converged]
  Term symbol:  3 (1) A                                     R^2 =  1.16277e-13
  Excitation energy:                                             286.778446 eV
  Excited state 3 (singlet, A)                                     [converged]
  Term symbol:  4 (1) A                                     R^2 =  3.75612e-13
  Excitation energy:                                             286.846579 eV
  Excited state 4 (singlet, A)                                     [converged]
  Term symbol:  5 (1) A                                     R^2 =  4.40259e-13
  Excitation energy:                                             286.925082 eV
  Excited state 5 (singlet, A)                                     [converged]
  Term symbol:  6 (1) A                                     R^2 =  5.09471e-13
  Excitation energy:                                             287.284093 eV
  Excited state 6 (singlet, A)                                     [converged]
  Term symbol:  7 (1) A                                     R^2 =  2.99945e-13
  Excitation energy:                                             287.407259 eV
  Excited state 7 (singlet, A)                                     [converged]
  Term symbol:  8 (1) A                                     R^2 =  6.04094e-13
  Excitation energy:                                             287.695707 eV
  Excited state 8 (singlet, A)                                     [converged]
  Term symbol:  9 (1) A                                     R^2 =  5.57685e-13
  Excitation energy:                                             287.800169 eV
  Excited state 9 (singlet, A)                                     [converged]
  Term symbol:  10 (1) A                                    R^2 =  9.58575e-09
  Excitation energy:                                             290.530159 eV
  Excited state 10 (singlet, A)                                 [not converged]
  Term symbol:  11 (1) A                                    R^2 =  2.51913e-06
  Excitation energy:                                             290.793306 eV
  Excited state 1 (singlet, A)                                     [converged]
  Term symbol:  2 (1) A                                     R^2 =  3.09156e-13
  Excitation energy:                                               3.995101 eV
  Excited state 2 (singlet, A)                                     [converged]
  Term symbol:  3 (1) A                                     R^2 =  2.70131e-13
  Excitation energy:                                               4.220680 eV
  Excited state 3 (singlet, A)                                     [converged]
  Term symbol:  4 (1) A                                     R^2 =  3.79924e-13
  Excitation energy:                                               4.656008 eV
  Excited state 4 (singlet, A)                                     [converged]
  Term symbol:  5 (1) A                                     R^2 =  3.70627e-13
  Excitation energy:                                               5.874911 eV
  Excited state 5 (singlet, A)                                     [converged]
  Term symbol:  6 (1) A                                     R^2 =  1.81906e-12
  Excitation energy:                                               6.116113 eV
  Excited state 6 (singlet, A)                                     [converged]
  Term symbol:  7 (1) A                                     R^2 =  1.72297e-12
  Excitation energy:                                               6.248823 eV
  Excited state 7 (singlet, A)                                     [converged]
  Term symbol:  8 (1) A                                     R^2 =  9.93155e-07
  Excitation energy:                                               7.339145 eV

                    Orbital Energies (a.u.)
 --------------------------------------------------------------

 Alpha MOs
 -- Occupied --
-15.616 -15.610 -11.326 -11.322 -11.314 -11.300  -1.265  -1.196
 -1.019  -0.879  -0.867  -0.695  -0.674  -0.667  -0.584  -0.545
 -0.540  -0.502  -0.423  -0.407  -0.337

          Ground-State Mulliken Net Atomic Charges

     Atom                 Charge (a.u.)
  ----------------------------------------
      1 C                     0.026039
      2 C                     0.137404
      3 N                    -0.318205
      4 C                     0.027407
      5 C                     0.108886
      6 N                    -0.318228
      7 H                     0.110170
      8 H                     0.051836
      9 H                     0.112672
     10 H                     0.062019
  ----------------------------------------
  Sum of atomic charges =    -0.000000

                    Cartesian Multipole Moments
 -----------------------------------------------------------------
    Charge (ESU x 10^10)
                -0.0000
    Dipole Moment (Debye)
         X      -0.1485      Y      -0.1763      Z       0.0603
       Tot       0.2383
    Quadrupole Moments (Debye-Ang)
        XX     -29.5758     XY       7.2558     YY     -37.6628
        XZ      -0.4458     YZ      -0.4365     ZZ     -37.6794

 Total job time:  10074.54s(wall), 10074.39s(cpu)
        *  Thank you very much for using Q-Chem.  Have a nice day.  *
