 Q-Chem 5.0, Q-Chem, Inc., Pleasanton, CA (2017)
 Q-Chem 5.0.1 for Intel X86 EM64T Linux

User input:
--------------------------------------------------------------
$comment
time = 16.0
$end

$molecule
0 1
c       -1.16309        0.70002        0.02992
c       -1.16564       -0.69543        0.08329
n       -0.01018       -1.47821       -0.05403
c        1.20805       -0.77683       -0.01003
c        1.14670        0.72820        0.01516
n       -0.01705        1.51342       -0.04641
h       -2.00802        1.30525       -0.12918
h       -2.06780       -1.30906       -0.11269
h        2.08021       -1.25560        0.07522
h        2.06395        1.29502        0.15175
$end

$rem
	JOBTYPE         SP
	METHOD          FANO
	basis cc-pCVDZ
	cc_symmetry FALSE
    SYM_TOL		4
	mem_total 50000
	threads 1
	!QSYS wt=12:00:00
	!QSYS mem=60.0gb
	!QSYS vmem=60.0gb
	!ADC_PRINT       6
	!FANO_PRINT      3
$end

$fano_pump
	METHOD                   ADC(2)
	EE_SINGLETS              7
	ADC_DAVIDSON_MAXITER     150
$end

$fano_probe
	METHOD                   CVS-ADC(2)-x
	CC_REST_OCC              6
	EE_SINGLETS              10
	ADC_DAVIDSON_MAXITER     150
$end
--------------------------------------------------------------

             Standard Nuclear Orientation (Angstroms)
    I     Atom           X                Y                Z
 ----------------------------------------------------------------
    1      C       1.1512894866     0.7199555749     0.0345011301
    2      C      -0.0913375179     1.3548092076     0.0890406076
    3      N      -1.3128130093     0.6805433040    -0.0525653164
    4      C      -1.2401865018    -0.7234579493    -0.0143539530
    5      C       0.1289886594    -1.3513809619     0.0098478582
    6      N       1.3566363239    -0.6700006253    -0.0474009359
    7      H       2.0740574419     1.1992144434    -0.1214895923
    8      H      -0.2289034695     2.4379539399    -0.1025728070
    9      H      -2.0625044683    -1.2840233893     0.0675660721
   10      H       0.2180625357    -2.4264989725     0.1420462354
 ----------------------------------------------------------------

   16    -262.6453840420      7.72E-09 Convergence criterion met
 Total energy in the final basis set = -262.64538404
  Excited state 1 (singlet, A)                                     [converged]
  Term symbol:  2 (1) A                                     R^2 =  5.21205e-13
  Excitation energy:                                             286.438661 eV
  Excited state 2 (singlet, A)                                     [converged]
  Term symbol:  3 (1) A                                     R^2 =  2.60035e-13
  Excitation energy:                                             286.514625 eV
  Excited state 3 (singlet, A)                                     [converged]
  Term symbol:  4 (1) A                                     R^2 =  5.82956e-13
  Excitation energy:                                             286.552378 eV
  Excited state 4 (singlet, A)                                     [converged]
  Term symbol:  5 (1) A                                     R^2 =  2.04691e-13
  Excitation energy:                                             286.631193 eV
  Excited state 5 (singlet, A)                                     [converged]
  Term symbol:  6 (1) A                                     R^2 =  4.30297e-13
  Excitation energy:                                             287.327518 eV
  Excited state 6 (singlet, A)                                     [converged]
  Term symbol:  7 (1) A                                     R^2 =  9.59142e-13
  Excitation energy:                                             287.362313 eV
  Excited state 7 (singlet, A)                                     [converged]
  Term symbol:  8 (1) A                                     R^2 =  1.01616e-12
  Excitation energy:                                             287.476742 eV
  Excited state 8 (singlet, A)                                     [converged]
  Term symbol:  9 (1) A                                     R^2 =  7.30492e-13
  Excitation energy:                                             287.554579 eV
  Excited state 9 (singlet, A)                                     [converged]
  Term symbol:  10 (1) A                                    R^2 =  2.89288e-08
  Excitation energy:                                             290.896347 eV
  Excited state 10 (singlet, A)                                     [converged]
  Term symbol:  11 (1) A                                    R^2 =  9.67775e-07
  Excitation energy:                                             291.086182 eV
  Excited state 1 (singlet, A)                                     [converged]
  Term symbol:  2 (1) A                                     R^2 =  8.34632e-14
  Excitation energy:                                               4.058793 eV
  Excited state 2 (singlet, A)                                     [converged]
  Term symbol:  3 (1) A                                     R^2 =  1.09380e-13
  Excitation energy:                                               4.703527 eV
  Excited state 3 (singlet, A)                                     [converged]
  Term symbol:  4 (1) A                                     R^2 =  1.99293e-13
  Excitation energy:                                               4.751501 eV
  Excited state 4 (singlet, A)                                     [converged]
  Term symbol:  5 (1) A                                     R^2 =  2.19090e-13
  Excitation energy:                                               5.740860 eV
  Excited state 5 (singlet, A)                                     [converged]
  Term symbol:  6 (1) A                                     R^2 =  7.33137e-14
  Excitation energy:                                               6.355580 eV
  Excited state 6 (singlet, A)                                     [converged]
  Term symbol:  7 (1) A                                     R^2 =  3.74639e-13
  Excitation energy:                                               6.590120 eV
  Excited state 7 (singlet, A)                                     [converged]
  Term symbol:  8 (1) A                                     R^2 =  6.77332e-07
  Excitation energy:                                               7.353673 eV

                    Orbital Energies (a.u.)
 --------------------------------------------------------------

 Alpha MOs
 -- Occupied --
-15.615 -15.614 -11.313 -11.307 -11.298 -11.297  -1.263  -1.189
 -1.036  -0.897  -0.874  -0.717  -0.697  -0.668  -0.605  -0.541
 -0.536  -0.503  -0.425  -0.413  -0.347

          Ground-State Mulliken Net Atomic Charges

     Atom                 Charge (a.u.)
  ----------------------------------------
      1 C                     0.135258
      2 C                     0.080362
      3 N                    -0.327078
      4 C                     0.156538
      5 C                     0.087045
      6 N                    -0.335237
      7 H                     0.042914
      8 H                     0.074735
      9 H                     0.024464
     10 H                     0.060999
  ----------------------------------------
  Sum of atomic charges =    -0.000000

                    Cartesian Multipole Moments
 -----------------------------------------------------------------
    Charge (ESU x 10^10)
                 0.0000
    Dipole Moment (Debye)
         X      -0.2099      Y      -0.2781      Z       0.1327
       Tot       0.3728
    Quadrupole Moments (Debye-Ang)
        XX     -38.0020     XY       6.3641     YY     -29.6815
        XZ      -0.3469     YZ      -0.8095     ZZ     -37.1860

 Total job time:  9076.23s(wall), 9075.60s(cpu)
        *  Thank you very much for using Q-Chem.  Have a nice day.  *
