 Q-Chem 5.0, Q-Chem, Inc., Pleasanton, CA (2017)
 Q-Chem 5.0.1 for Intel X86 EM64T Linux

User input:
--------------------------------------------------------------
$comment
time = 4.0
$end

$molecule
0 1
c       -1.19219        0.76718       -0.03269
c       -1.16107       -0.70627        0.07078
n        0.00859       -1.51742       -0.05468
c        1.19515       -0.71597        0.00965
c        1.17547        0.71401        0.08884
n       -0.00345        1.45919       -0.05609
h       -2.22614        1.22368        0.09128
h       -2.08776       -1.19166        0.05913
h        1.98730       -1.19407       -0.18244
h        2.04836        1.26866       -0.05669
$end

$rem
	JOBTYPE         SP
	METHOD          FANO
	basis cc-pCVDZ
	cc_symmetry FALSE
    SYM_TOL		4
	mem_total 50000
	threads 1
	!QSYS wt=12:00:00
	!QSYS mem=60.0gb
	!QSYS vmem=60.0gb
	!ADC_PRINT       6
	!FANO_PRINT      3
$end

$fano_pump
	METHOD                   ADC(2)
	EE_SINGLETS              7
	ADC_DAVIDSON_MAXITER     150
$end

$fano_probe
	METHOD                   CVS-ADC(2)-x
	CC_REST_OCC              6
	EE_SINGLETS              10
	ADC_DAVIDSON_MAXITER     150
$end
--------------------------------------------------------------

             Standard Nuclear Orientation (Angstroms)
    I     Atom           X                Y                Z
 ----------------------------------------------------------------
    1      C       1.4024168720    -0.1806514659    -0.0414905507
    2      C       0.7417950215     1.1365685616     0.0645262762
    3      N      -0.6638246654     1.3660567233    -0.0511349926
    4      C      -1.3902477939     0.1325442353     0.0205690191
    5      C      -0.7573134555    -1.1500307480     0.0973589555
    6      N       0.6263530047    -1.3164341521    -0.0573256834
    7      H       2.5330682269    -0.1482456418     0.0742280288
    8      H       1.3698030138     1.9731022530     0.0468946135
    9      H      -2.3123554402     0.2234485333    -0.1649941721
   10      H      -1.3081180404    -2.0262466416    -0.0426859391
 ----------------------------------------------------------------

   16    -262.6287678035      8.93E-09 Convergence criterion met
 Total energy in the final basis set = -262.62876780
  Excited state 1 (singlet, A)                                     [converged]
  Term symbol:  2 (1) A                                     R^2 =  3.69128e-13
  Excitation energy:                                             286.301648 eV
  Excited state 2 (singlet, A)                                     [converged]
  Term symbol:  3 (1) A                                     R^2 =  7.67807e-13
  Excitation energy:                                             286.304108 eV
  Excited state 3 (singlet, A)                                     [converged]
  Term symbol:  4 (1) A                                     R^2 =  3.05323e-13
  Excitation energy:                                             286.541032 eV
  Excited state 4 (singlet, A)                                     [converged]
  Term symbol:  5 (1) A                                     R^2 =  5.75150e-13
  Excitation energy:                                             286.794259 eV
  Excited state 5 (singlet, A)                                     [converged]
  Term symbol:  6 (1) A                                     R^2 =  9.59691e-13
  Excitation energy:                                             287.104539 eV
  Excited state 6 (singlet, A)                                     [converged]
  Term symbol:  7 (1) A                                     R^2 =  1.70734e-12
  Excitation energy:                                             287.276500 eV
  Excited state 7 (singlet, A)                                     [converged]
  Term symbol:  8 (1) A                                     R^2 =  7.12305e-13
  Excitation energy:                                             287.444558 eV
  Excited state 8 (singlet, A)                                     [converged]
  Term symbol:  9 (1) A                                     R^2 =  7.00059e-13
  Excitation energy:                                             287.564667 eV
  Excited state 9 (singlet, A)                                     [converged]
  Term symbol:  10 (1) A                                    R^2 =  7.23508e-11
  Excitation energy:                                             290.933311 eV
  Excited state 10 (singlet, A)                                     [converged]
  Term symbol:  11 (1) A                                    R^2 =  7.05624e-07
  Excitation energy:                                             291.180086 eV
  Excited state 1 (singlet, A)                                     [converged]
  Term symbol:  2 (1) A                                     R^2 =  4.72048e-14
  Excitation energy:                                               3.974240 eV
  Excited state 2 (singlet, A)                                     [converged]
  Term symbol:  3 (1) A                                     R^2 =  1.05005e-13
  Excitation energy:                                               4.559843 eV
  Excited state 3 (singlet, A)                                     [converged]
  Term symbol:  4 (1) A                                     R^2 =  2.05999e-13
  Excitation energy:                                               4.627931 eV
  Excited state 4 (singlet, A)                                     [converged]
  Term symbol:  5 (1) A                                     R^2 =  2.68798e-13
  Excitation energy:                                               5.601671 eV
  Excited state 5 (singlet, A)                                     [converged]
  Term symbol:  6 (1) A                                     R^2 =  8.22094e-14
  Excitation energy:                                               6.183257 eV
  Excited state 6 (singlet, A)                                     [converged]
  Term symbol:  7 (1) A                                     R^2 =  2.83170e-13
  Excitation energy:                                               6.523856 eV
  Excited state 7 (singlet, A)                                     [converged]
  Term symbol:  8 (1) A                                     R^2 =  9.10406e-07
  Excitation energy:                                               7.299543 eV

                    Orbital Energies (a.u.)
 --------------------------------------------------------------

 Alpha MOs
 -- Occupied --
-15.619 -15.611 -11.313 -11.306 -11.299 -11.294  -1.259  -1.182
 -1.040  -0.899  -0.878  -0.720  -0.696  -0.667  -0.610  -0.552
 -0.538  -0.499  -0.418  -0.410  -0.347

          Ground-State Mulliken Net Atomic Charges

     Atom                 Charge (a.u.)
  ----------------------------------------
      1 C                     0.074451
      2 C                     0.120024
      3 N                    -0.345243
      4 C                     0.210438
      5 C                     0.106718
      6 N                    -0.324018
      7 H                     0.091110
      8 H                     0.041271
      9 H                    -0.022370
     10 H                     0.047619
  ----------------------------------------
  Sum of atomic charges =    -0.000000

                    Cartesian Multipole Moments
 -----------------------------------------------------------------
    Charge (ESU x 10^10)
                 0.0000
    Dipole Moment (Debye)
         X       0.1943      Y      -0.0480      Z       0.1157
       Tot       0.2312
    Quadrupole Moments (Debye-Ang)
        XX     -28.2383     XY       6.2988     YY     -39.1642
        XZ       0.7065     YZ       0.1449     ZZ     -37.1686

 Total job time:  9370.31s(wall), 9369.60s(cpu)
        *  Thank you very much for using Q-Chem.  Have a nice day.  *
