 Q-Chem 5.0, Q-Chem, Inc., Pleasanton, CA (2017)
 Q-Chem 5.0.1 for Intel X86 EM64T Linux

User input:
--------------------------------------------------------------
$comment
time = 8.0
$end

$molecule
0 1
c       -1.19594        0.78362       -0.01374
c       -1.14176       -0.72798        0.09205
n       -0.02532       -1.49846       -0.05733
c        1.20377       -0.74668        0.00303
c        1.16328        0.73741        0.06862
n       -0.01267        1.46257       -0.05405
h       -2.14214        1.18813       -0.01657
h       -2.20979       -1.25416       -0.09446
h        2.36529       -1.31114       -0.12051
h        2.16465        1.32324       -0.00806
$end

$rem
	JOBTYPE         SP
	METHOD          FANO
	basis cc-pCVDZ
	cc_symmetry FALSE
    SYM_TOL		4
	mem_total 50000
	threads 1
	!QSYS wt=12:00:00
	!QSYS mem=60.0gb
	!QSYS vmem=60.0gb
	!ADC_PRINT       6
	!FANO_PRINT      3
$end

$fano_pump
	METHOD                   ADC(2)
	EE_SINGLETS              7
	ADC_DAVIDSON_MAXITER     150
$end

$fano_probe
	METHOD                   CVS-ADC(2)-x
	CC_REST_OCC              6
	EE_SINGLETS              10
	ADC_DAVIDSON_MAXITER     150
$end
--------------------------------------------------------------

             Standard Nuclear Orientation (Angstroms)
    I     Atom           X                Y                Z
 ----------------------------------------------------------------
    1      C       1.3703874212    -0.4151094816    -0.0143463862
    2      C       0.8929203674     1.0198572816     0.0950024026
    3      N      -0.3956042095     1.4450156218    -0.0510691170
    4      C      -1.3631171840     0.3774203197     0.0092437430
    5      C      -0.9061963697    -1.0353181508     0.0713565407
    6      N       0.4261320783    -1.3997350635    -0.0545981238
    7      H       2.3922008297    -0.5367751581    -0.0194070548
    8      H       1.7691763061     1.8258567298    -0.0917591376
    9      H      -2.6368282488     0.5921548249    -0.1114009808
   10      H      -1.7022093791    -1.8793001179    -0.0052999420
 ----------------------------------------------------------------

   17    -262.6111383959      4.28E-09 Convergence criterion met
 Total energy in the final basis set = -262.61113840
  Excited state 1 (singlet, A)                                     [converged]
  Term symbol:  2 (1) A                                     R^2 =  4.40100e-13
  Excitation energy:                                             286.598471 eV
  Excited state 2 (singlet, A)                                     [converged]
  Term symbol:  3 (1) A                                     R^2 =  1.63328e-13
  Excitation energy:                                             286.861266 eV
  Excited state 3 (singlet, A)                                     [converged]
  Term symbol:  4 (1) A                                     R^2 =  9.08179e-13
  Excitation energy:                                             287.001989 eV
  Excited state 4 (singlet, A)                                     [converged]
  Term symbol:  5 (1) A                                     R^2 =  3.86920e-13
  Excitation energy:                                             287.062794 eV
  Excited state 5 (singlet, A)                                     [converged]
  Term symbol:  6 (1) A                                     R^2 =  4.61282e-13
  Excitation energy:                                             287.481976 eV
  Excited state 6 (singlet, A)                                     [converged]
  Term symbol:  7 (1) A                                     R^2 =  1.08384e-12
  Excitation energy:                                             287.578502 eV
  Excited state 7 (singlet, A)                                     [converged]
  Term symbol:  8 (1) A                                     R^2 =  7.64429e-13
  Excitation energy:                                             287.668036 eV
  Excited state 8 (singlet, A)                                     [converged]
  Term symbol:  9 (1) A                                     R^2 =  9.02765e-13
  Excitation energy:                                             287.903656 eV
  Excited state 9 (singlet, A)                                     [converged]
  Term symbol:  10 (1) A                                    R^2 =  4.60707e-12
  Excitation energy:                                             290.043820 eV
  Excited state 10 (singlet, A)                                     [converged]
  Term symbol:  11 (1) A                                    R^2 =  9.80925e-07
  Excitation energy:                                             290.573188 eV
  Excited state 1 (singlet, A)                                     [converged]
  Term symbol:  2 (1) A                                     R^2 =  6.97571e-14
  Excitation energy:                                               3.975895 eV
  Excited state 2 (singlet, A)                                     [converged]
  Term symbol:  3 (1) A                                     R^2 =  8.41952e-14
  Excitation energy:                                               4.191945 eV
  Excited state 3 (singlet, A)                                     [converged]
  Term symbol:  4 (1) A                                     R^2 =  1.32002e-13
  Excitation energy:                                               4.634704 eV
  Excited state 4 (singlet, A)                                     [converged]
  Term symbol:  5 (1) A                                     R^2 =  2.78285e-13
  Excitation energy:                                               5.881106 eV
  Excited state 5 (singlet, A)                                     [converged]
  Term symbol:  6 (1) A                                     R^2 =  1.98861e-13
  Excitation energy:                                               6.115712 eV
  Excited state 6 (singlet, A)                                     [converged]
  Term symbol:  7 (1) A                                     R^2 =  2.33499e-13
  Excitation energy:                                               6.248507 eV
  Excited state 7 (singlet, A)                                     [converged]
  Term symbol:  8 (1) A                                     R^2 =  9.90980e-07
  Excitation energy:                                               7.361585 eV

                    Orbital Energies (a.u.)
 --------------------------------------------------------------

 Alpha MOs
 -- Occupied --
-15.618 -15.611 -11.334 -11.320 -11.316 -11.311  -1.266  -1.196
 -1.019  -0.882  -0.857  -0.705  -0.671  -0.644  -0.582  -0.544
 -0.531  -0.502  -0.425  -0.401  -0.340

          Ground-State Mulliken Net Atomic Charges

     Atom                 Charge (a.u.)
  ----------------------------------------
      1 C                     0.159778
      2 C                     0.029201
      3 N                    -0.309571
      4 C                     0.003651
      5 C                     0.070500
      6 N                    -0.317354
      7 H                     0.044672
      8 H                     0.093703
      9 H                     0.130621
     10 H                     0.094798
  ----------------------------------------
  Sum of atomic charges =    -0.000000

                    Cartesian Multipole Moments
 -----------------------------------------------------------------
    Charge (ESU x 10^10)
                 0.0000
    Dipole Moment (Debye)
         X       0.1654      Y      -0.1778      Z       0.0243
       Tot       0.2440
    Quadrupole Moments (Debye-Ang)
        XX     -26.1059     XY       4.0140     YY     -41.2198
        XZ       0.1179     YZ      -0.1901     ZZ     -37.8601

 Total job time:  9064.19s(wall), 9063.49s(cpu)
        *  Thank you very much for using Q-Chem.  Have a nice day.  *
